97
Energy = -53632.94340292
I     7.2327612   10.9148872   28.0621708 
I     8.6250147   12.1833264   23.0272438 
I     8.1094875    7.9851932   20.7582927 
I     8.9366353    3.9905174   18.8366378 
I    10.2279623    4.4443199   30.9950272 
I     6.8961300    5.5773050   27.7078602 
Cd   13.1755099    7.5993336   27.9777728 
Cd   13.0489793   10.0066404   24.5984144 
Cd    9.4355481    9.6521583   27.0195353 
Cd    9.5994539    9.4924341   22.5840395 
Cd   13.1321116    7.5574992   21.4214873 
Cd    9.6779599    5.5333727   28.3887728 
Cd    9.4267674    2.9118089   24.5018252 
Cd    7.3340550    6.1617455   24.8837849 
Cd    8.9942663    5.1703338   21.2653208 
Cd   11.3493353    8.9272070   31.1274351 
Se   13.2031775    7.5533747   25.4145198 
Se   12.1555501    9.9470303   22.1091071 
Se   10.6440971    7.9840699   28.7642154 
Se    9.0909882    8.1438755   24.8545431 
Se   10.7755650    4.2805841   26.3684141 
Se    7.5274424    4.1665353   23.2779867 
Se   13.1460251    7.6323547   32.4914439 
P     8.7755689    9.0487886   31.9206058 
P     5.3075607    7.9334507   24.5837139 
P     8.9035808    0.8855768   26.2228306 
H     8.2463086    9.6468719   33.0850809 
H     8.0031197    9.7157858   30.9437059 
H     8.0740619    7.8272593   31.9695619 
H     3.9134730    7.7150671   24.6474615 
H     5.3524117    8.6719471   23.3844323 
H     5.4047499    8.9983028   25.5038194 
H     8.0189018    1.0753023   27.3052875 
H     8.4883648   -0.4082316   25.8409810 
H    10.0690516    0.5505228   26.9478365 
H    12.6620907    6.1977619   18.1857759 
P    13.4373136    7.1996036   18.8011554 
H    14.7354558    6.8096937   18.4033679 
H    13.2079952    8.2633950   17.9059025 
I    12.9152453    0.9930722   28.3085421 
I    11.3391546    1.4359732   23.0155527 
I    15.0288286    3.4120008   20.5248054 
I    17.8450969    6.1889279   18.5554769 
I    17.4173627    6.7811550   30.9629271 
I    18.2184460    3.2796994   27.8315363 
Cd   11.0405100    6.3263066   24.6857852 
Cd   13.2805663    3.3661238   26.9606106 
Cd   13.2527225    3.5993536   22.6974535 
Cd   16.7634922    5.5572486   28.3839033 
Cd   18.9964408    6.7660390   24.3335481 
Cd   17.5743607    2.8395343   24.6176846 
Cd   17.2273177    5.3595011   21.0747063 
Cd   12.9582935    5.4067098   31.1239723 
Se   11.5275851    5.5915387   22.2062367 
Se   14.1248023    5.2528031   28.7688536 
Se   14.8174743    3.6677237   24.8330398 
Se   17.2334610    7.2025825   26.3472860 
Se   18.8770344    4.6120445   22.9743222 
P    13.9871006    3.0880361   31.9878561 
P    20.9987357    7.0042431   26.1683893 
H    13.6298858    2.3930713   33.1632074 
H    13.7330450    2.0877726   31.0214519 
H    15.3889108    2.9767176   32.0834928 
H    20.9486209    6.0710978   27.2248520 
H    22.3956398    6.9968331   25.9553101 
H    20.9069415    8.1902917   26.9261857 
I    18.8383528   11.2015852   28.0076972 
I    19.3176107    9.3577597   23.1315074 
I    15.9126421   11.7257129   20.7326083 
I    11.9772914   13.0814679   18.8365150 
I    11.7585404   11.7691032   30.9057382 
I    14.3524149   14.1137261   27.6491318 
Cd   15.3650105    6.2405078   24.6770841 
Cd   16.7514646    9.7411008   26.9721730 
Cd   16.5124486    9.7357368   22.6356184 
Cd   13.0824468   11.6511812   28.3320271 
Cd   10.9063002   13.1430058   24.4419549 
Cd   14.7440910   13.3897665   24.8418143 
Cd   13.0783027   12.3904146   21.2030437 
Cd   15.1881026    8.5435141   31.1456946 
Se   15.6332098    7.2924047   22.2459585 
Se   14.7147723    9.6236758   28.7736444 
Se   15.5469873   10.8768555   24.8658078 
Se   11.4300635   11.3006570   26.3086046 
Se   12.9165619   14.1743848   23.2080818 
P    16.6280766   10.6940261   31.9017287 
P    17.3087686   14.2136549   24.6616365 
P     9.4261668   14.6349930   26.1600274 
H    17.4534552   10.8044211   33.0419457 
H    17.5740822   10.9917201   30.8950708 
H    15.9854967   11.9465211   31.9831277 
H    17.8450210   15.5183148   24.7364152 
H    17.9870297   13.7693200   23.5088455 
H    18.1017665   13.5846090   25.6451981 
H    10.0504945   15.2756232   27.2507877 
H     8.5473724   15.6746186   25.7867423 
H     8.5187205   13.8237639   26.8749871 
