97
Energy = -53632.85232523
I     7.2960002   10.9474930   28.0816573 
I     8.6920203   12.1835282   23.0404845 
I     8.2100944    7.9834336   20.7431064 
I     9.1092388    4.0778999   18.7574872 
I    10.2058089    4.3945339   30.9660829 
I     6.8880376    5.5419866   27.6434161 
Cd   13.1341377    7.5820569   28.0446617 
Cd   13.0882619   10.0443736   24.6331591 
Cd    9.4512341    9.6493720   27.0211345 
Cd    9.6324907    9.4988021   22.6149274 
Cd   13.1318242    7.5624939   21.4020992 
Cd    9.6416806    5.5288785   28.3834841 
Cd    9.4483694    2.8600874   24.4851479 
Cd    7.3250298    6.1480253   24.8319071 
Cd    9.0337881    5.1570632   21.2223140 
Cd   11.3285890    8.9119935   31.1686015 
Se   13.1229667    7.5852467   25.4744465 
Se   12.2032742    9.9336263   22.1523611 
Se   10.6148595    7.9699432   28.8025409 
Se    9.0947299    8.1186501   24.8596108 
Se   10.7636827    4.2498518   26.3698442 
Se    7.5943673    4.1433310   23.2307856 
Se   13.1485137    7.6060759   32.5064409 
P     8.8252112    9.2267472   32.0761204 
P     5.1776836    7.7118981   24.3699517 
P     8.8558839    0.7959512   26.1191152 
H     8.4762108    9.9825891   33.2144999 
H     8.0358781    9.8766398   31.1024500 
H     8.0232093    8.0912287   32.3092544 
H     3.8301730    7.2981323   24.4266725 
H     5.1576659    8.3555055   23.1168570 
H     5.0989354    8.8436232   25.2062381 
H     7.9322619    0.9600732   27.1719597 
H     8.4282185   -0.4645145   25.6530167 
H     9.9821164    0.3959053   26.8690791 
H    11.9092128    6.7510451   18.1992057 
P    13.0120223    7.4371720   18.7459851 
H    14.0650340    6.7947843   18.0660915 
H    12.9466807    8.6399603   18.0161653 
I    13.0887003    0.8931402   28.2799985 
I    11.4224288    1.3849079   23.0507780 
I    15.2428558    3.1805379   20.6482515 
I    18.4245430    5.8945040   18.8696035 
I    17.4204920    6.6757835   30.9647291 
I    18.0106190    3.1568708   27.7187868 
Cd   11.0210232    6.2882423   24.6690194 
Cd   13.1990182    3.3314804   27.0699944 
Cd   13.2602403    3.5330239   22.5760703 
Cd   16.6709664    5.5956609   28.4236890 
Cd   19.1289584    6.7508608   24.4355069 
Cd   17.2806089    3.6346424   25.0154799 
Cd   17.2935975    5.2193625   21.2121592 
Cd   12.9149385    5.3620521   31.1921044 
Se   11.5874966    5.5556647   22.2008110 
Se   14.0765983    5.2192161   28.8161987 
Se   14.6923528    3.7312837   24.8715013 
Se   17.2126392    7.0981290   26.3147840 
Se   18.9019327    4.4663657   23.2397042 
P    13.8713266    3.0360689   32.0964638 
P    21.1774310    7.2356157   26.1151687 
H    13.3812272    2.3722542   33.2399017 
H    13.6782263    2.0313067   31.1218218 
H    15.2538587    2.8864721   32.3261264 
H    21.4895987    6.3222796   27.1428725 
H    22.4856639    7.5122408   25.6671053 
H    20.9473870    8.3893438   26.8943179 
I    18.9989318   10.8765634   28.0573299 
I    19.3688882    9.1864022   23.0170944 
I    15.9788969   11.6526383   20.7312701 
I    12.0900709   12.9632710   18.8037771 
I    11.8468950   11.7384074   30.9315477 
I    14.5126704   14.0159962   27.6542784 
Cd   15.2361034    6.3599872   24.6434158 
Cd   16.7788628    9.6731889   27.0061670 
Cd   16.5523480    9.6614342   22.6081000 
Cd   13.1318429   11.6260627   28.3594265 
Cd   10.9577236   13.1587028   24.4724446 
Cd   14.8499699   13.3179166   24.8470952 
Cd   13.1355678   12.3682462   21.2074845 
Cd   15.1993515    8.5157111   31.1825030 
Se   15.6474571    7.2131734   22.1795931 
Se   14.7491186    9.5609891   28.7942259 
Se   15.6361430   10.7880380   24.8647524 
Se   11.4672098   11.3032949   26.3437302 
Se   13.0068268   14.1109517   23.2329552 
P    16.7380136   10.5511447   32.0059243 
P    17.3121959   14.3582846   24.5155584 
P     9.4684700   14.6953467   26.1140160 
H    17.5478697   10.5422449   33.1607793 
H    17.7138537   10.8363255   31.0260453 
H    16.1653538   11.8313701   32.1461311 
H    17.6444415   15.7240029   24.6353072 
H    17.9511237   14.0840524   23.2898732 
H    18.2711589   13.8167719   25.3954090 
H    10.0695916   15.3915851   27.1829624 
H     8.5991804   15.7092176   25.6604696 
H     8.5487134   13.9134326   26.8445969 
