97
Energy = -53632.99122913
I     7.2247220   10.8991581   28.0482162 
I     8.5681541   12.1923162   23.0678718 
I     8.0437137    8.0478817   20.7789138 
I     8.4682192    4.0345417   18.8756987 
I    10.2907408    4.4644654   31.0026965 
I     6.9134226    5.6438149   27.7646362 
Cd   13.2939433    7.5579364   27.8020098 
Cd   13.0977828    9.7961705   24.6240525 
Cd    9.4437719    9.6264298   27.0280028 
Cd    9.5917242    9.5068695   22.5959910 
Cd   13.0871608    7.5519676   21.4198355 
Cd    9.7187560    5.5221169   28.3902500 
Cd    9.4332952    2.9558868   24.4675654 
Cd    7.4008967    6.1743582   24.9311294 
Cd    8.9107031    5.2020652   21.2922911 
Cd   11.3374404    8.8989468   31.0454847 
Se   13.5297180    7.3325955   25.2608315 
Se   12.1416242    9.9612368   22.1371915 
Se   10.7528772    7.9533351   28.6692420 
Se    9.1737321    8.1267909   24.8596004 
Se   10.7803104    4.2937949   26.3524950 
Se    7.4629783    4.1841072   23.3218303 
Se   13.0799961    7.6558973   32.5066641 
P     8.7256293    8.9779305   31.7688244 
P     5.4345395    8.0437576   24.6150011 
P     8.9456160    0.9732802   26.2714870 
H     8.1545697    9.5561692   32.9248101 
H     7.9619793    9.6462283   30.7843088 
H     8.0340531    7.7495125   31.7901657 
H     4.0261969    7.9198334   24.6469012 
H     5.5466019    8.7783528   23.4170117 
H     5.5717852    9.1066857   25.5337423 
H     8.0980939    1.2317393   27.3700746 
H     8.5047975   -0.3387383   25.9871751 
H    10.1285553    0.6672352   26.9842428 
H    12.6687688    6.1467594   18.1575825 
P    13.3796023    7.1939200   18.7752214 
H    14.6903042    6.8728179   18.3650426 
H    13.0947394    8.2304672   17.8612461 
I    12.8563511    1.0623126   28.3719581 
I    11.2173459    1.4782669   22.8615319 
I    14.8707058    3.6964052   20.3860897 
I    18.1017640    6.0977393   18.4587220 
I    17.4136601    7.1203670   31.1297849 
I    18.5817995    3.5445679   28.9501988 
Cd   11.1971643    6.3634998   24.7165177 
Cd   13.3174470    3.3851986   26.9051692 
Cd   13.2179449    3.6488614   22.7144357 
Cd   16.8993990    5.6538859   28.5490250 
Cd   19.0800184    6.9606652   24.3030400 
Cd   17.4892197    1.1878645   23.1641542 
Cd   17.2278202    5.5251352   20.9671443 
Cd   13.0276255    5.4565291   31.0724127 
Se   11.4379927    5.6144646   22.1816814 
Se   14.2248403    5.2600526   28.7506974 
Se   14.7849263    3.4207720   24.7670529 
Se   17.2854654    7.1791629   26.4154308 
Se   18.2948270    4.7929687   23.2294272 
P    14.3156495    3.2283241   31.8553557 
P    20.8975973    6.7267626   26.2824311 
H    14.2814019    2.5002065   33.0665148 
H    13.9990781    2.1957754   30.9427106 
H    15.7118308    3.2861438   31.6687476 
H    20.5329503    5.6772893   27.1528605 
H    22.2979061    6.5183886   26.2656518 
H    20.8578588    7.7975221   27.1982653 
I    18.7623447   11.2995383   28.0726089 
I    19.3210243    9.5540933   23.1921318 
I    15.9244106   11.8723405   20.8178095 
I    11.9797516   13.1005553   18.8408094 
I    11.6559085   11.7727054   30.8615781 
I    14.2109208   14.1742038   27.6434440 
Cd   15.9220714    5.7707749   24.4119351 
Cd   16.7719919    9.6856032   27.0261669 
Cd   16.4569857    9.7884684   22.6748583 
Cd   13.0469104   11.6483611   28.3042519 
Cd   10.9062644   13.0655233   24.4435394 
Cd   14.6738859   13.3504286   24.8484901 
Cd   13.0575111   12.3867734   21.2300104 
Cd   15.0894892    8.6751408   31.1882673 
Se   15.5964123    7.3941631   22.1625027 
Se   14.6697696    9.6458952   28.7644033 
Se   15.5266525   10.8727979   24.9350607 
Se   11.4602743   11.2038325   26.2553586 
Se   12.8684684   14.1901570   23.2168227 
P    16.2790705   11.0218295   31.8849293 
P    17.2665398   14.1382658   24.7732650 
P     9.5151470   14.5291971   26.2929632 
H    17.0364304   11.3066740   33.0439835 
H    17.2512377   11.3247199   30.9048574 
H    15.5370782   12.2205816   31.8317040 
H    17.8678638   15.4171541   24.8312747 
H    17.9780866   13.6253701   23.6698298 
H    17.9842381   13.5052584   25.8126675 
H    10.2104090   15.0862711   27.3872143 
H     8.6546447   15.6191179   26.0313461 
H     8.6110731   13.7139906   27.0091430 
