97
Energy = -53632.94182989
I     7.0959607   10.4040539   28.1420190 
I     8.4628347   12.0991248   23.0440152 
I     8.2332701    7.9110799   20.6950848 
I     9.0172165    3.8371789   18.8428366 
I    10.2286632    4.3356772   30.9285003 
I     6.9190664    5.3600375   27.6411347 
Cd   13.1461839    7.5720870   27.9735752 
Cd   12.9225134   10.1965767   24.6721510 
Cd    9.4831892    9.7099846   26.9680291 
Cd    9.5407996    9.5663414   22.5919363 
Cd   13.1310349    7.6151903   21.4265007 
Cd    9.6607566    5.5597329   28.3528198 
Cd    9.4651087    2.8977052   24.4816808 
Cd    7.3645190    6.1482279   24.8427543 
Cd    9.0308098    5.1398126   21.2127015 
Cd   11.3411509    8.9012174   31.1423369 
Se   13.1454510    7.6761024   25.4115115 
Se   12.1430073    9.9469291   22.1677395 
Se   10.6464141    7.9696919   28.7680016 
Se    9.1434755    8.0908383   24.8375940 
Se   10.8007974    4.2779812   26.3422018 
Se    7.5847524    4.1361314   23.2401565 
Se   13.1473995    7.5864588   32.5083686 
P     8.7784659    8.9905913   31.9379587 
P     5.3290660    7.8990416   24.7101656 
P     8.9336965    0.8738754   26.2164638 
H     8.2459516    9.6390836   33.0731258 
H     7.9880514    9.5771850   30.9214774 
H     8.1126913    7.7543610   32.0628295 
H     3.9434466    7.6489449   24.8161075 
H     5.3159511    8.7296658   23.5720696 
H     5.4670162    8.8821114   25.7139359 
H     8.0823592    1.0992380   27.3185264 
H     8.4699248   -0.4106728   25.8584199 
H    10.1005607    0.4984139   26.9168834 
H    12.0196121    7.4020596   18.0452719 
P    13.0871770    7.9625272   18.7744423 
H    14.1674221    7.5298537   17.9798936 
H    12.9887248    9.3085140   18.3589024 
I    13.2579832    0.8180367   28.0756885 
I    11.4442284    1.3783656   23.0862785 
I    15.3352043    2.9705492   20.7967111 
I    18.4268151    5.7259887   18.8439772 
I    17.3994866    6.6660384   30.9591989 
I    18.0680044    3.2022941   27.7022129 
Cd   11.0927159    6.3111195   24.6053097 
Cd   13.2137856    3.3558623   27.0269571 
Cd   13.2813757    3.5618800   22.6145795 
Cd   16.6720984    5.6039987   28.3782415 
Cd   19.0581132    6.6706092   24.4669294 
Cd   17.2792134    3.2588947   24.8817578 
Cd   17.3016108    5.1559539   21.2311146 
Cd   12.8983711    5.3812470   31.1505857 
Se   11.6163831    5.5423751   22.1278641 
Se   14.0837342    5.2095284   28.7944920 
Se   14.7088436    3.8494969   24.8770232 
Se   17.2216783    7.1818010   26.3513868 
Se   18.9051473    4.4025656   23.2519341 
P    13.9600366    3.0457083   31.9954572 
P    16.8107401    0.5996309   24.7124895 
P    21.0725107    7.2239566   26.2048044 
H    13.5707407    2.3132173   33.1377578 
H    13.7743825    2.0524941   31.0080148 
H    15.3584488    2.9504320   32.1496288 
H    17.7413134   -0.4462356   24.8961749 
H    16.2035606    0.1384590   23.5270411 
H    15.8307433    0.1878538   25.6400558 
H    21.2850330    6.3874284   27.3209982 
H    22.4228807    7.4548930   25.8631356 
H    20.8050788    8.4314676   26.8860702 
I    18.9568533   10.9861791   28.0203681 
I    19.3630573    9.1074097   23.0416193 
I    16.0125799   11.4850716   20.5992166 
I    12.2786631   12.5542205   18.5974685 
I    11.8644864   11.7062219   30.9735556 
I    14.5922332   13.9217129   27.6152423 
Cd   15.2930957    6.4492026   24.6483859 
Cd   16.7249380    9.7747319   26.9660779 
Cd   16.5370735    9.6264886   22.6003809 
Cd   13.0267778   11.6054049   28.2998521 
Cd   10.7226015   13.7053116   24.4419355 
Cd   14.8054116   13.3405942   24.7650871 
Cd   13.1558467   12.3274332   21.1621974 
Cd   15.1689167    8.4962043   31.1327836 
Se   15.6618168    7.1631997   22.1372155 
Se   14.7173545    9.5721576   28.7692333 
Se   15.5648683   10.7802311   24.8045193 
Se   11.3326283   11.5015092   26.3298078 
Se   13.0725450   14.1244112   23.0694494 
P    16.6038568   10.6447656   31.8805041 
P    17.3925160   14.1538480   24.5355534 
H    17.3884669   10.8198788   33.0415483 
H    17.5728335   10.9314112   30.8932509 
H    15.9195154   11.8766093   31.8939672 
H    17.9098427   15.4670450   24.5979824 
H    18.0414036   13.7354574   23.3556033 
H    18.2459643   13.5423230   25.4781099 
