97
Energy = -53632.85412120
I     7.1281987   10.5970650   28.1217319 
I     8.6278944   12.1432009   23.0570403 
I     8.2470147    7.9647251   20.6483677 
I     9.0531587    3.9528265   18.7919523 
I    10.2094037    4.4106843   30.9636879 
I     6.9056134    5.4599223   27.6548420 
Cd   13.1596043    7.5754001   28.0414474 
Cd   13.0865436    9.9878589   24.7387365 
Cd    9.4144733    9.6378259   26.9944281 
Cd    9.6036972    9.4472597   22.5687491 
Cd   13.1462914    7.5735222   21.4177787 
Cd    9.6558662    5.5449166   28.3741874 
Cd    9.4178744    2.8815761   24.4752146 
Cd    7.3098043    6.1583878   24.8466657 
Cd    9.0278689    5.1419092   21.2014351 
Cd   11.3095323    8.9544717   31.1337732 
Se   13.1538099    7.5223451   25.4716253 
Se   12.1953103    9.9397559   22.2357487 
Se   10.6389163    7.9801573   28.7649306 
Se    9.1217875    8.0921122   24.8279978 
Se   10.7575059    4.2421097   26.3590456 
Se    7.5711593    4.1757106   23.2224433 
Se   13.1368638    7.6622980   32.4806768 
P     8.7876982    9.1391516   32.0080301 
P     5.1924980    7.8065744   24.7550212 
P     8.7748940    0.7997944   26.0652493 
H     8.3616933    9.8381262   33.1565415 
H     7.9701408    9.7439098   31.0272318 
H     8.0767491    7.9375660   32.2004837 
H     3.8535350    7.4223232   24.9760271 
H     5.0088820    8.5887551   23.5971088 
H     5.3018653    8.8347962   25.7146839 
H     7.8536741    0.9607617   27.1206580 
H     8.3140967   -0.4358286   25.5654485 
H     9.8862585    0.3461622   26.8056859 
H    12.0261998    7.2817680   18.0710475 
P    13.0866555    7.8800484   18.7788259 
H    14.1814798    7.4220936   18.0202263 
H    12.9841916    9.2103628   18.3174689 
I    13.1981807    0.8526376   28.1372158 
I    11.3946267    1.4004661   23.0450340 
I    15.3050396    3.0174610   20.7803184 
I    18.3403695    5.8043970   18.8379895 
I    17.3963821    6.7247697   30.9424669 
I    18.0399826    3.1903504   27.7117165 
Cd   11.0427894    6.2595037   24.6338030 
Cd   13.2021529    3.3557502   27.0448409 
Cd   13.2667467    3.5462992   22.6232235 
Cd   16.6667465    5.5887376   28.4011344 
Cd   19.1041177    6.6621575   24.5135898 
Cd   17.2889489    3.2168413   24.8937464 
Cd   17.3133546    5.1549432   21.2353990 
Cd   12.9057490    5.4052377   31.1964878 
Se   11.6010303    5.5530420   22.1524592 
Se   14.0759976    5.2093679   28.8285513 
Se   14.7073472    3.7949016   24.8820517 
Se   17.2255037    7.1655548   26.3624198 
Se   18.8890158    4.4175140   23.2690672 
P    13.8705352    3.0677735   32.0871427 
P    16.9821397    0.5624157   24.5605025 
P    21.1660076    7.1565813   26.1869772 
H    13.3928666    2.3806366   33.2225357 
H    13.6789433    2.0728235   31.1031385 
H    15.2552543    2.9179312   32.3039208 
H    17.9956437   -0.4047822   24.7254615 
H    16.4824456    0.1460347   23.3106661 
H    15.9971341    0.0006456   25.3976422 
H    21.4377647    6.2749639   27.2535377 
H    22.4899097    7.3849624   25.7570074 
H    20.9572046    8.3417895   26.9231138 
I    18.9804812   11.0054095   28.0473794 
I    19.4030193    9.1087125   23.0801512 
I    16.1180039   11.5840860   20.6973333 
I    12.2638750   12.3882017   18.5586943 
I    11.8075990   11.7779900   30.8635019 
I    14.4975824   14.0401433   27.4878060 
Cd   15.3356541    6.3739224   24.6493190 
Cd   16.7942595    9.7424997   27.0109135 
Cd   16.6095596    9.6036996   22.6248367 
Cd   13.1272691   11.6916388   28.3151559 
Cd   11.1357607   12.7383720   24.0971972 
Cd   14.8714720   13.3031363   24.6942535 
Cd   13.2692046   12.2208344   21.0561971 
Cd   15.1858343    8.5670676   31.1471513 
Se   15.6642493    7.1842180   22.1615920 
Se   14.7261431    9.6092847   28.7546473 
Se   15.6266840   10.7757236   24.8315607 
Se   11.3966764   11.3552694   26.3318364 
Se   13.0430852   14.0408018   23.0118626 
P    16.6952844   10.6142683   31.9955709 
P    17.3148265   14.3957159   24.4461147 
H    17.4900921   10.6032439   33.1607001 
H    17.6798416   10.9228663   31.0318211 
H    16.1046224   11.8855705   32.1423328 
H    17.5848887   15.7709515   24.6029879 
H    18.0298925   14.1638590   23.2544800 
H    18.2410751   13.8772268   25.3734322 
