97
Energy = -53632.98438243
I     7.0207774   10.1726609   28.2520502 
I     7.2697515   11.2687179   22.6038642 
I     8.4364432    7.5582040   20.4613016 
I     9.0482360    3.0960741   19.1747097 
I    10.2525532    4.1872538   30.9374078 
I     6.8976783    5.2030112   27.6657715 
Cd   13.0843232    7.5159637   27.9341808 
Cd   12.6801502   10.3191386   24.7031414 
Cd    9.4371425    9.6485767   26.9907901 
Cd    9.2963723    9.4442238   22.5217037 
Cd   12.9608338    7.6911556   21.5149769 
Cd    9.6278725    5.4659007   28.3698897 
Cd    9.4878610    2.8268585   24.5056713 
Cd    7.3318850    6.0569745   24.8494255 
Cd    9.0570373    4.8798308   21.2309932 
Cd   11.3118057    8.7966746   31.1646864 
Se   13.0680915    7.7358975   25.3831564 
Se   11.8955871   10.0027820   22.2075886 
Se   10.6014560    7.8655104   28.7995443 
Se    9.1016354    7.9930452   24.8536704 
Se   10.8117273    4.2065842   26.3708423 
Se    7.5586274    4.0022793   23.2974911 
Se   13.1236853    7.4817321   32.5379033 
P     8.7370596    8.7930688   31.9529266 
P     5.3767268    7.8742334   24.6630609 
P     9.0167384    0.8418340   26.3288836 
H     8.1543097    9.4018552   33.0868445 
H     7.9393795    9.3600237   30.9280154 
H     8.1169201    7.5306069   32.0514662 
H     3.9863851    7.7098423   24.4706618 
H     5.6469556    8.8731242   23.6994011 
H     5.3604701    8.6781953   25.8224869 
H     8.2224531    1.1404685   27.4564358 
H     8.5233854   -0.4594047   26.0807539 
H    10.2089029    0.4891396   26.9992884 
H    11.8817860    7.5867049   18.1054103 
P    12.9255444    8.1479583   18.8686001 
H    14.0173600    7.8110336   18.0432829 
H    12.7655631    9.5121983   18.5323524 
I    13.3482484    0.7346985   28.0509548 
I    11.5134491    1.3141091   23.1657551 
I    15.3608422    2.9296407   20.8196657 
I    18.5081170    5.6288481   18.8821301 
I    17.3761797    6.6393012   30.9636661 
I    18.1087872    3.2306213   27.6972620 
Cd   11.0732415    6.2568840   24.6281422 
Cd   13.2228755    3.2934292   27.0293460 
Cd   13.3028953    3.5438178   22.6348636 
Cd   16.6519268    5.6154316   28.3561323 
Cd   18.9829935    6.7351695   24.4424205 
Cd   17.2908763    3.3241417   24.8829946 
Cd   17.2287726    5.2054076   21.2375477 
Cd   12.8805207    5.3132608   31.1278864 
Se   11.6048201    5.4701985   22.1528298 
Se   14.0756409    5.1686392   28.7764465 
Se   14.7156703    3.8627707   24.9015491 
Se   17.1623053    7.2111308   26.3448725 
Se   18.8936687    4.4622288   23.2347281 
P    14.1688082    3.0338374   31.8630443 
P    16.7395351    0.6718112   24.6697459 
P    20.9437010    7.3503111   26.2412596 
H    14.0181423    2.2382711   33.0218052 
H    13.9739764    2.0367875   30.8802927 
H    15.5774878    3.0920444   31.8375740 
H    17.6037425   -0.4449358   24.7374033 
H    16.0310008    0.3145699   23.5045216 
H    15.7915922    0.2694236   25.6350037 
H    21.1087183    6.5414352   27.3861560 
H    22.3093955    7.6068956   25.9833014 
H    20.6112724    8.5632394   26.8862668 
I    18.8523804   10.9708221   28.0479987 
I    19.2563064    9.1653448   23.0217237 
I    15.8447640   11.3178021   20.4728743 
I    12.1270896   12.5438851   18.6571876 
I    11.8154211   11.5919188   31.0640729 
I    14.5917524   13.7626843   27.6990160 
Cd   15.2103917    6.4885194   24.6571224 
Cd   16.5940007    9.8093948   26.9481471 
Cd   16.3961622    9.6333958   22.5966804 
Cd   12.8823154   11.5258583   28.2955487 
Cd   15.4624991   16.4238790   22.3851113 
Cd   14.8217759   13.3520515   24.7378718 
Cd   13.0758555   12.4401927   21.2298369 
Cd   15.1030768    8.4300891   31.1242577 
Se   15.5402268    7.1523996   22.1270111 
Se   14.6289292    9.5160657   28.7835730 
Se   15.4045932   10.7470910   24.7937419 
Se   11.1366060   11.5516103   26.4134174 
Se   13.1678102   14.2227116   23.0652623 
P    16.4539577   10.6566445   31.8290859 
P    17.4012667   14.2217909   24.9016175 
H    17.2177684   10.9465913   32.9828496 
H    17.4128009   10.9541059   30.8343863 
H    15.6939748   11.8420074   31.7734240 
H    17.7762415   15.5111027   25.3335214 
H    18.2276039   14.1448637   23.7613287 
H    18.1946542   13.4617248   25.7920426 
