97
Energy = -53632.93184526
I     7.2470710   10.8511936   28.0654301 
I     8.6096132   12.1510229   23.0962791 
I     8.1376782    7.9027897   20.7904070 
I     8.5529588    3.6898914   18.9954042 
I    10.2059680    4.3971177   30.9879058 
I     6.8913858    5.5999129   27.7362143 
Cd   13.1421840    7.5938592   27.9622473 
Cd   13.0483637   10.0418838   24.5353718 
Cd    9.4561933    9.6236366   26.9804100 
Cd    9.6590844    9.4890657   22.5325476 
Cd   13.1229386    7.5783191   20.8262477 
Cd    9.6604926    5.5529378   28.3834034 
Cd    9.4328368    2.8812450   24.5199837 
Cd    7.3551255    6.1553951   24.8881900 
Cd    8.9914104    5.0524979   21.2838974 
Cd   11.3557811    8.9287967   31.1537023 
Se   13.1411919    7.5923746   25.4049012 
Se   12.1941742    9.9889770   22.0600922 
Se   10.6398475    7.9834108   28.7956078 
Se    9.1288722    8.1164494   24.8214097 
Se   10.7683552    4.2978257   26.3657060 
Se    7.5046292    4.1100291   23.3478552 
Se   13.1489650    7.6199665   32.5253176 
P     8.7783551    9.0510830   31.9271390 
P     5.3336392    7.9247426   24.5696104 
P     8.9661905    0.8500711   26.2743682 
H     8.2324690    9.6440318   33.0866590 
H     8.0200803    9.7187223   30.9390656 
H     8.0794264    7.8276921   31.9622357 
H     3.9394435    7.7072016   24.6353045 
H     5.3817963    8.6435893   23.3588661 
H     5.4299103    9.0026630   25.4743616 
H     8.1165895    1.0365606   27.3856891 
H     8.5411815   -0.4464402   25.9115274 
H    10.1496090    0.5076698   26.9649477 
I    13.2134979    0.8761088   28.1403751 
I    11.4089345    1.3733690   23.1259915 
I    15.3220753    3.0514563   20.8125443 
I    18.7437606    5.5167484   18.9565474 
I    17.3946119    6.6493892   30.9603954 
I    17.9813660    3.1615987   27.7148331 
Cd   11.0611561    6.2835514   24.5585400 
Cd   13.2054064    3.3838778   27.0119709 
Cd   13.2012596    3.6021563   22.5628505 
Cd   16.6491359    5.5911346   28.3652202 
Cd   19.0529576    6.7036244   24.4574394 
Cd   17.2523823    3.2776897   24.8727601 
Cd   17.3499402    5.2339785   21.2499008 
Cd   12.8978771    5.4029664   31.1708566 
Se   11.5277745    5.5664022   22.0867109 
Se   14.0561998    5.2373105   28.8077154 
Se   14.6692462    3.8321992   24.8437614 
Se   17.1882359    7.1648959   26.3371940 
Se   18.9274334    4.4150136   23.2972368 
P    13.9507604    3.0675280   32.0030120 
P    16.7979585    0.6293552   24.5247186 
P    21.0696138    7.2594276   26.2052592 
H    13.5700215    2.3328347   33.1466876 
H    13.7494553    2.0827733   31.0093753 
H    15.3503829    2.9696201   32.1416516 
H    17.7208156   -0.4365665   24.6095762 
H    16.1990517    0.2953861   23.2934485 
H    15.8087015    0.1281168   25.3958234 
H    21.3043827    6.4046815   27.3033815 
H    22.4144655    7.5063721   25.8527339 
H    20.8071196    8.4518398   26.9144410 
I    18.9430659   11.0031418   28.0474066 
I    19.3572705    9.1754883   23.0791622 
I    15.9375877   11.7298936   20.7898979 
I    12.1916191   13.5733488   18.9449814 
I    11.8247179   11.7522446   30.9497241 
I    14.5080756   14.0083417   27.6900418 
Cd   15.2996426    6.4191222   24.5533281 
Cd   16.7522979    9.7359984   26.9689226 
Cd   16.5261595    9.6190468   22.5384637 
Cd   13.1102444   11.6197806   28.3511784 
Cd   10.9076577   13.1288797   24.4713663 
Cd   14.7806092   13.3036538   24.8537499 
Cd   13.0391677   12.4308873   21.2398728 
Cd   15.1898147    8.4880721   31.1504982 
Se   15.6611153    7.1833095   22.0758178 
Se   14.7358576    9.5670007   28.7856007 
Se   15.6058135   10.7892166   24.8181987 
Se   11.4602765   11.2836677   26.3388805 
Se   12.9362491   14.1865449   23.3041488 
P    16.6702767   10.6054974   31.9046211 
P    17.3062908   14.2078044   24.4979484 
P     9.3774399   14.5887190   26.1888098 
H    17.4782304   10.7273256   33.0561999 
H    17.6312875   10.8852091   30.9069757 
H    16.0278862   11.8590176   31.9601043 
H    17.7875295   15.5357170   24.5141898 
H    17.8964230   13.7808625   23.2913784 
H    18.2190881   13.6336524   25.4069019 
H     9.9606768   15.2542505   27.2880501 
H     8.4721102   15.5993712   25.7991881 
H     8.4827226   13.7551361   26.8945404 
