97
Energy = -53632.97335119
I     7.2492762   10.7994210   28.1030430 
I     8.5806706   12.1268988   23.1595218 
I     8.0440692    7.8843753   20.9006155 
I     8.1433926    3.6966608   19.0988110 
I    10.2145654    4.3955315   31.0072183 
I     6.9088359    5.6173550   27.7751439 
Cd   13.1549588    7.5930241   27.9198901 
Cd   13.0251107   10.0192358   24.4592166 
Cd    9.4674279    9.5937856   26.9641283 
Cd    9.7479518    9.4745425   22.4680128 
Cd   13.1476988    7.5696412   19.0047725 
Cd    9.6853575    5.5557157   28.3714566 
Cd    9.4675442    2.8889866   24.5250182 
Cd    7.4132590    6.1431008   24.8960402 
Cd    9.0032706    4.9725287   21.3425445 
Cd   11.3872557    8.9281998   31.1521334 
Se   13.1576596    7.5812788   25.3753012 
Se   12.2451579    9.9744905   21.9950080 
Se   10.6654941    7.9803237   28.8079342 
Se    9.1618010    8.1104351   24.8086687 
Se   10.7990901    4.3157488   26.3645547 
Se    7.4678147    4.0539176   23.4209644 
Se   13.1578426    7.6146148   32.5521599 
P     8.7816223    9.0157680   31.8745081 
P     5.4399278    7.9795318   24.5617977 
P     9.0375243    0.9062198   26.3831474 
H     8.1671700    9.5893130   33.0110551 
H     8.0469482    9.6698872   30.8578435 
H     8.1072593    7.7778923   31.8760542 
H     4.0307044    7.8566037   24.5522665 
H     5.5960742    8.7115849   23.3681689 
H     5.5526427    9.0375422   25.4887636 
H     8.2433619    1.1627953   27.5223492 
H     8.5817414   -0.4075770   26.1284696 
H    10.2431642    0.5821217   27.0451180 
I    13.2711492    0.8986995   28.1513215 
I    11.4482612    1.3554147   23.1944365 
I    15.3706464    3.0132208   20.8831565 
I    18.9227827    5.1260792   19.0150042 
I    17.4061605    6.6519168   30.9736685 
I    17.9914659    3.1807157   27.7298893 
Cd   11.0962183    6.2676322   24.4676159 
Cd   13.2399023    3.4079782   26.9788047 
Cd   13.1667252    3.6829446   22.4890133 
Cd   16.6509443    5.6113914   28.3440751 
Cd   19.0502410    6.7384598   24.4530087 
Cd   17.2584965    3.3384412   24.8568199 
Cd   17.4318602    5.2891708   21.2866636 
Cd   12.8926124    5.4186038   31.1615186 
Se   11.4821776    5.5922794   22.0036283 
Se   14.0673321    5.2469591   28.8144562 
Se   14.6749356    3.8585066   24.8122568 
Se   17.1780133    7.1886441   26.3316410 
Se   19.0206673    4.4227204   23.3499431 
P    14.0455291    3.0935518   31.9309257 
P    16.6577116    0.7031055   24.5543557 
P    20.9546909    7.2978719   26.3647612 
H    13.7868272    2.3058392   33.0753669 
H    13.8304435    2.1222659   30.9253420 
H    15.4546912    3.0637047   31.9724989 
H    17.4685496   -0.4558653   24.5276346 
H    15.9118269    0.4646350   23.3825470 
H    15.7111809    0.2749403   25.5091181 
H    20.9981514    6.4759454   27.5117409 
H    22.3490045    7.4793791   26.2111946 
H    20.6575697    8.5216987   27.0054116 
I    18.9029869   11.0653767   28.0670756 
I    19.3617300    9.2195103   23.1236833 
I    15.9368232   11.8064374   20.8684341 
I    12.2111742   13.7035771   18.9980922 
I    11.8450081   11.7525856   30.9774815 
I    14.5008833   14.0037104   27.7031429 
Cd   15.3207979    6.4532202   24.4540641 
Cd   16.7349896    9.7585004   26.9403127 
Cd   16.4745334    9.5529673   22.4599198 
Cd   13.1147241   11.6062509   28.3427830 
Cd   10.8927569   13.0968109   24.4803655 
Cd   14.7347922   13.2671104   24.8296699 
Cd   12.9289839   12.4223043   21.2872718 
Cd   15.1855666    8.4625949   31.1414969 
Se   15.6746815    7.1317505   21.9846673 
Se   14.7411910    9.5604853   28.7926618 
Se   15.5957038   10.7750347   24.7891257 
Se   11.4704917   11.2554443   26.3447995 
Se   12.8901198   14.2366011   23.3424328 
P    16.6018365   10.6484644   31.8709720 
P    17.3119834   14.0938301   24.5676196 
P     9.4078983   14.4863025   26.3372268 
H    17.4020223   10.8647264   33.0159914 
H    17.5495968   10.9445349   30.8644017 
H    15.8959907   11.8688910   31.8790524 
H    17.8933800   15.3833306   24.5854581 
H    17.9212317   13.6053748   23.3945301 
H    18.1454614   13.4743883   25.5231017 
H    10.0421364   15.0533967   27.4639814 
H     8.4965984   15.5371530   26.0850909 
H     8.5305077   13.6122147   27.0169819 
