97
Energy = -53632.84665238
I     7.2295398   10.8670577   28.0306969 
I     8.6627908   12.1706698   23.0408912 
I     8.1196915    7.9724279   20.7539624 
I     8.8533640    3.8604104   18.8782038 
I    10.2174524    4.3854836   30.9575883 
I     6.8781991    5.5617409   27.7053112 
Cd   13.1365569    7.5882809   27.9359089 
Cd   13.0173288   10.0914015   24.6277604 
Cd    9.4330653    9.6356873   26.9898807 
Cd    9.5899022    9.4844992   22.5880707 
Cd   13.1209999    7.5618400   21.9099141 
Cd    9.6382382    5.5359089   28.3858222 
Cd    9.3908570    2.8552396   24.4913188 
Cd    7.2885375    6.1752534   24.8839559 
Cd    8.8861513    5.1621492   21.2174297 
Cd   11.3216557    8.9095458   31.1307081 
Se   13.1300987    7.5767272   25.3510988 
Se   12.1548014    9.9712047   22.1162686 
Se   10.6352278    7.9689204   28.7545416 
Se    9.1236805    8.0873286   24.8410446 
Se   10.7331244    4.2191073   26.3792960 
Se    7.5230082    4.1630054   23.2937596 
Se   13.1411771    7.6166764   32.4780978 
P     8.7916411    9.1217265   32.0001432 
P     5.2048696    7.8499628   24.6008030 
P     8.8084050    0.7602274   26.0941345 
H     8.3804285    9.8159989   33.1570272 
H     7.9904810    9.7668260   31.0328960 
H     8.0425741    7.9402625   32.1732764 
H     3.8435919    7.5101596   24.7473234 
H     5.1293041    8.5484659   23.3796771 
H     5.2646878    8.9435029   25.4886695 
H     7.9074846    0.8959108   27.1706398 
H     8.3651650   -0.4842229   25.6004304 
H     9.9458118    0.3297603   26.8088415 
I    13.2208972    0.8401696   28.0983415 
I    11.3813954    1.3838490   23.0718406 
I    15.2785340    2.9857322   20.7784133 
I    18.4857585    5.7282571   18.8948360 
I    17.3867145    6.6738124   30.9408064 
I    18.0012240    3.1704360   27.7205787 
Cd   11.0094475    6.2113461   24.6449265 
Cd   13.1986500    3.3490419   27.0226280 
Cd   13.2402479    3.5333922   22.6134812 
Cd   16.6583796    5.5872126   28.3807647 
Cd   19.0810272    6.6802785   24.4545492 
Cd   17.2524026    3.2072520   24.9035063 
Cd   17.3076304    5.0777064   21.2088052 
Cd   12.9179049    5.3832755   31.1510372 
Se   11.5348599    5.5094016   22.1354747 
Se   14.0555149    5.2369808   28.7676367 
Se   14.6840536    3.8431540   24.8637729 
Se   17.2448637    7.1750169   26.3561126 
Se   18.8576258    4.3994557   23.2824303 
P    13.9316702    3.0619112   32.0314889 
P    16.9310863    0.5534077   24.6075241 
P    21.2073006    7.2394916   26.0252143 
H    13.4808045    2.3768276   33.1788614 
H    13.7518237    2.0527308   31.0599870 
H    15.3214429    2.9453138   32.2357019 
H    17.9469024   -0.4058557   24.8004659 
H    16.4369612    0.1052589   23.3665483 
H    15.9447232    0.0113961   25.4562898 
H    21.5695886    6.3933618   27.0939261 
H    22.4942953    7.4854746   25.5033994 
H    21.0199677    8.4385981   26.7438271 
I    18.9478420   11.0463519   28.0005771 
I    19.3475424    9.1301495   23.0167527 
I    15.9879060   11.6985427   20.7305600 
I    12.0095580   13.1237948   18.8774948 
I    11.8126777   11.7381766   30.9204663 
I    14.4996206   14.0164279   27.6652268 
Cd   15.3663864    6.4136670   24.6376566 
Cd   16.7726714    9.7512913   26.9762262 
Cd   16.5561122    9.6716861   22.5727126 
Cd   13.1098018   11.6335172   28.3554720 
Cd   10.9340648   13.1718331   24.4465678 
Cd   14.8516677   13.3293300   24.8525124 
Cd   13.1755683   12.4362718   21.1867025 
Cd   15.1823127    8.5228307   31.1335179 
Se   15.6915043    7.2036615   22.1197019 
Se   14.7252056    9.5632931   28.7425158 
Se   15.5861620   10.7856489   24.8228354 
Se   11.4220654   11.3339985   26.3501934 
Se   13.0031615   14.1307623   23.2514328 
P    16.6843185   10.5915500   31.9464889 
P    17.3195293   14.3605401   24.5942081 
P     9.4180164   14.7167157   26.0611111 
H    17.4853339   10.6100160   33.1073933 
H    17.6601381   10.8957344   30.9721672 
H    16.0803215   11.8586097   32.0741946 
H    17.6454031   15.7205586   24.7769351 
H    17.9922128   14.1333232   23.3772539 
H    18.2498580   13.7828963   25.4822790 
H     9.9965542   15.4244192   27.1350984 
H     8.5525179   15.7231446   25.5842577 
H     8.4873697   13.9396496   26.7823260 
