97
Energy = -53633.00496908
I     7.2330575   10.7612072   27.9515634 
I     8.7153372   12.2431455   22.9297138 
I     8.2886712    8.0844829   20.6192633 
I     9.2530051    4.2954601   18.5419168 
I     8.9897780    3.9505859   30.7346441 
I     6.7345921    5.5881555   27.3219612 
Cd   13.1868619    7.2227156   28.1956676 
Cd   13.0856368    9.9503924   24.6872854 
Cd    9.5150646    9.4550782   27.1137923 
Cd    9.6779978    9.5322980   22.5975150 
Cd   13.1377840    7.6157682   21.3791087 
Cd    9.4722067    5.3372948   28.4405480 
Cd    9.4657095    2.9684673   24.3779471 
Cd    7.3543086    6.1742302   24.6261921 
Cd    9.1246281    5.2417613   21.0940895 
Cd   11.4396755    8.7506882   31.2237120 
Se   13.1696041    7.5292830   25.5768860 
Se   12.2501832    9.9816400   22.1622768 
Se   10.6300788    7.7489184   28.8319855 
Se    9.1313080    8.1402474   24.7853991 
Se   10.7468910    4.2424090   26.3358515 
Se    7.6198594    4.1805877   23.0066388 
Se   13.2659031    7.8928430   32.7455611 
P     8.8109320    8.5238106   31.8937100 
P     5.4326507    8.0622784   24.2310560 
P     8.9431673    1.0376617   26.1984428 
H     8.1111443    8.8756378   33.0719440 
H     7.9617571    9.1398181   30.9495671 
H     8.3573152    7.1926835   31.7675107 
H     4.0244647    7.9398214   24.1888039 
H     5.5952546    8.9004775   23.1087901 
H     5.5288727    9.0391720   25.2450783 
H     8.3461986    1.4900396   27.3932166 
H     8.2721193   -0.2011995   26.0787028 
H    10.1749286    0.5828434   26.7204858 
H    11.8825057    6.5946111   18.2427918 
P    12.9592886    7.3698633   18.7229706 
H    14.0293974    6.7406867   18.0559803 
H    12.8188334    8.5137407   17.9118740 
I    13.2571408    0.6318209   27.2918799 
I    11.3382548    1.4549204   22.8066249 
I    15.1481920    3.2452332   20.4706029 
I    18.2083749    5.9029829   18.5849882 
I    17.5525285    6.7923424   30.6382778 
I    18.2560700    3.2537784   27.3738136 
Cd   11.0628338    6.3070323   24.7045868 
Cd   13.2784450    3.3918552   27.0318526 
Cd   13.2447267    3.5870561   22.5278770 
Cd   16.5373476    5.4532062   28.2466633 
Cd   19.0035651    6.6748482   24.3073573 
Cd   17.2919538    3.2878879   24.6502943 
Cd   17.2243388    5.2841724   21.0431270 
Cd   14.2200135   10.3455217   34.7351139 
Se   11.5891407    5.6315755   22.1800993 
Se   14.1254408    4.9225643   28.9826643 
Se   14.7073457    3.8267504   24.7216026 
Se   17.2213871    7.1056226   26.2378036 
Se   18.8729569    4.4666736   22.9715113 
P    16.7338774    0.6463659   24.5024471 
P    20.9240643    7.1000859   26.1826041 
H    17.5992907   -0.4515862   24.7072726 
H    16.0992250    0.1924092   23.3278944 
H    15.7233612    0.3273444   25.4390259 
H    20.8523858    6.2615390   27.3136280 
H    22.3319369    7.1700155   26.0667609 
H    20.6947643    8.3407115   26.8170414 
I    18.9939091   10.9809248   27.8304996 
I    19.3841037    9.1465154   22.9123903 
I    16.0261173   11.7915010   20.7677781 
I    12.1764510   13.0973511   18.8359062 
I    11.4738228   11.6801213   30.7393082 
I    14.4132860   13.9228414   27.7223699 
Cd   15.2677989    6.4138136   24.5550993 
Cd   16.7184043    9.6152052   27.0447633 
Cd   16.5706457    9.7236338   22.6024555 
Cd   13.0673479   11.4437862   28.4078681 
Cd   10.9486020   13.0858801   24.5010330 
Cd   14.7757539   13.2688715   24.9282773 
Cd   13.1641760   12.4116255   21.2702168 
Cd   15.2221123    8.4374461   31.2373865 
Se   15.6637063    7.2939586   22.0778457 
Se   14.7022854    9.4226413   28.7839189 
Se   15.6205577   10.7666173   24.8596952 
Se   11.4265322   11.2185790   26.3329482 
Se   12.9781145   14.1455878   23.2983678 
P    16.8455264   10.5817640   31.8309720 
P    17.3577064   14.0992533   24.8004464 
P     9.4889567   14.4173552   26.3654046 
H    17.7120060   10.6925876   32.9406802 
H    17.7822798   10.8437321   30.8039655 
H    16.2651477   11.8648949   31.9124987 
H    17.9043850   15.3930079   24.9625643 
H    18.0676310   13.7209159   23.6425228 
H    18.1275386   13.4105928   25.7638247 
H    10.1689644   14.8496096   27.5226338 
H     8.6350046   15.5318221   26.2012521 
H     8.5771500   13.5227610   26.9701660 
