97
Energy = -53632.95125636
I     7.2579565   10.9120175   27.9848958 
I     8.6825551   12.2029973   22.9427862 
I     8.2057011    7.9830213   20.7157880 
I     9.0566220    4.0380313   18.7958215 
I    10.0363665    4.3792568   31.0218493 
I     6.8845656    5.5795913   27.6404374 
Cd   13.1779699    7.4438438   28.1203969 
Cd   13.0700819   10.0300694   24.6449162 
Cd    9.4901112    9.6226291   27.0352195 
Cd    9.6319927    9.4974474   22.5948449 
Cd   13.1268074    7.5846042   21.4160988 
Cd    9.6454916    5.4968607   28.4987317 
Cd    9.4709451    2.9160843   24.5418876 
Cd    7.3553333    6.1579469   24.8603759 
Cd    9.0367743    5.1625422   21.2552713 
Cd   11.4057048    8.9295822   31.1565031 
Se   13.1568158    7.5983530   25.5262290 
Se   12.2009684    9.9586065   22.1422214 
Se   10.6449252    7.9643827   28.7939544 
Se    9.1171971    8.1407333   24.8374476 
Se   10.7814411    4.2885114   26.4164496 
Se    7.5928684    4.1520900   23.2595737 
Se   13.2201402    7.7733739   32.5599674 
P     8.8151200    8.9734218   31.9260539 
P     5.3312571    7.9241239   24.5155058 
P     9.0138970    0.8341250   26.1980001 
H     8.2426815    9.5093038   33.1010308 
H     8.0157167    9.6300039   30.9650643 
H     8.1754028    7.7174275   31.9311016 
H     3.9384390    7.6976501   24.5782679 
H     5.3704051    8.6665624   23.3181976 
H     5.4225378    8.9872004   25.4382522 
H     8.2304773    0.9995961   27.3589695 
H     8.5340733   -0.4310328   25.7968369 
H    10.2320236    0.4430014   26.7971025 
H    12.1096819    6.6833761   18.1304487 
P    13.1483226    7.4072210   18.7495863 
H    14.2668263    6.7823557   18.1625065 
H    13.1073285    8.5903085   17.9858468 
I    13.2863615    0.7024010   27.5698070 
I    11.3762801    1.4334824   22.9967683 
I    15.1896882    3.1399844   20.6565978 
I    18.1583658    5.8580682   18.6831098 
I    17.5261285    6.8337108   30.7799673 
I    18.2000135    3.2975706   27.5417091 
Cd   11.0589679    6.3140893   24.7118351 
Cd   13.2641729    3.4049560   27.0899304 
Cd   13.2482660    3.5831175   22.6407097 
Cd   16.6089731    5.5630166   28.3352705 
Cd   19.0257503    6.7004803   24.3896989 
Cd   17.2900373    3.2819838   24.7800198 
Cd   17.2350922    5.2307955   21.1482952 
Cd   13.0509091    5.1338197   31.6596111 
Se   11.5737555    5.5955035   22.2134056 
Se   14.1034255    5.1208246   28.9584105 
Se   14.7153174    3.8737154   24.8456782 
Se   17.2287926    7.1883794   26.3122755 
Se   18.8700919    4.4632868   23.1118137 
P    16.7833436    0.6412492   24.6605076 
P    20.9976930    7.1343667   26.2022395 
H    17.6943465   -0.4129712   24.8866998 
H    16.1810939    0.1560515   23.4821212 
H    15.7801782    0.2920849   25.5917497 
H    21.0181683    6.2800506   27.3237484 
H    22.3907600    7.2298562   25.9877464 
H    20.7917649    8.3619368   26.8671410 
I    18.9427589   11.0995792   27.9331095 
I    19.3698358    9.1545753   22.9703815 
I    15.9829158   11.7051330   20.6972077 
I    12.1139462   12.9967429   18.7665142 
I    11.6949960   11.8139333   30.8212611 
I    14.4499591   14.0397687   27.6173296 
Cd   15.2980989    6.4519979   24.6237674 
Cd   16.7448744    9.7370042   27.0002376 
Cd   16.5651443    9.7074429   22.5821313 
Cd   13.0984200   11.6087996   28.3396652 
Cd   10.9384488   13.1557894   24.4125006 
Cd   14.7950450   13.3358189   24.8177608 
Cd   13.1331562   12.3758281   21.1900668 
Cd   15.2372860    8.5340513   31.1629895 
Se   15.6562925    7.2652787   22.1333225 
Se   14.7183702    9.5653599   28.7579292 
Se   15.6122519   10.8212598   24.8188665 
Se   11.4396175   11.3357611   26.3005798 
Se   12.9763621   14.1541929   23.1848111 
P    16.7178579   10.6921195   31.8661686 
P    17.3296103   14.2634612   24.6417131 
P     9.4110762   14.6119382   26.1117691 
H    17.5391683   10.8144930   33.0084681 
H    17.6664857   11.0085642   30.8685383 
H    16.0643805   11.9392300   31.9505228 
H    17.7726364   15.5940256   24.8075049 
H    18.0469558   13.9459187   23.4706164 
H    18.1609994   13.6316104   25.5907243 
H    10.0053534   15.2413878   27.2252869 
H     8.5190292   15.6417760   25.7424826 
H     8.5093618   13.7656595   26.7933852 
