97
Energy = -53632.85149533
I     7.3130840   10.8314183   28.1473578 
I     8.6542328   12.1656406   23.0573702 
I     8.1637234    7.9691786   20.7802561 
I     9.0000836    3.9741201   18.8393240 
I    10.2633111    4.2926430   30.9498798 
I     6.8724570    5.5898656   27.7132965 
Cd   13.2119178    7.5165489   27.9984043 
Cd   13.0784930   10.0478417   24.6427040 
Cd    9.4936653    9.5908804   27.0561635 
Cd    9.6147994    9.4862203   22.6262736 
Cd   13.1361030    7.5708508   21.4155362 
Cd    9.6201358    5.5239456   28.3969193 
Cd    9.3984973    2.8549538   24.5264661 
Cd    7.3073827    6.1642411   24.8787863 
Cd    8.9864755    5.1464302   21.2578021 
Cd   11.3234098    9.0529681   31.1819508 
Se   13.1321166    7.5774613   25.4451648 
Se   12.1814414    9.9340626   22.1628514 
Se   10.6990708    7.9242136   28.8478058 
Se    9.1080102    8.1037393   24.8805546 
Se   10.7401990    4.2605753   26.3802905 
Se    7.5480869    4.1551620   23.2865531 
Se   13.1348316    7.6977504   32.5111255 
P     8.7922698    9.2029427   32.0252613 
P     5.1844510    7.7810127   24.4997692 
P     8.8925069    0.7321873   26.0965899 
H     8.3553892    9.9000925   33.1705687 
H     7.9825234    9.8075859   31.0380505 
H     8.0849457    7.9983248   32.2115956 
H     3.8292592    7.4021072   24.6006394 
H     5.1360779    8.4430313   23.2570894 
H     5.1690111    8.9010699   25.3549901 
H     8.0063376    0.8035344   27.1913212 
H     8.4835899   -0.5089929   25.5673039 
H    10.0644548    0.3279167   26.7723645 
H    12.3115339    6.8424490   18.0262553 
P    13.2934184    7.5425143   18.7543795 
H    14.4618650    6.9817867   18.2008426 
H    13.2666178    8.7772792   18.0773361 
I    13.1087709    0.6936799   27.8620817 
I    11.3650186    1.4089206   23.0423624 
I    15.2441691    3.0413576   20.7680179 
I    18.1631667    5.8310950   18.7707404 
I    17.4065079    6.7199165   30.9533126 
I    18.0430215    3.1918981   27.6767932 
Cd   11.0304702    6.2713054   24.6489356 
Cd   13.1649447    3.2777058   27.0306515 
Cd   13.2317204    3.5570808   22.6417998 
Cd   16.6951721    5.5772995   28.4243473 
Cd   19.0573698    6.6700755   24.4791274 
Cd   17.2548167    3.2166776   24.8646243 
Cd   17.2588562    5.1762592   21.2209234 
Cd   12.6898754    5.7024319   30.9379511 
Se   11.5697262    5.5664045   22.1685623 
Se   14.0892916    5.1202437   28.8360619 
Se   14.6777429    3.8239967   24.8908731 
Se   17.2156129    7.1595807   26.3737050 
Se   18.8476477    4.4235575   23.2328164 
P    16.8808602    0.5676826   24.6105721 
P    21.1754169    7.1678803   26.0826041 
H    17.8683367   -0.4222373   24.7960921 
H    16.3461120    0.1209522   23.3860186 
H    15.8922773    0.0756122   25.4874559 
H    21.5047041    6.2897308   27.1358831 
H    22.4751264    7.4031382   25.5877687 
H    20.9975884    8.3529373   26.8265237 
I    18.9693097   11.0094655   28.0572935 
I    19.3605819    9.1239221   23.0527498 
I    15.9694171   11.6506544   20.7404587 
I    12.1154035   12.9362237   18.7770163 
I    11.8321232   11.8411933   30.9045602 
I    14.5030103   14.0266008   27.6340739 
Cd   15.3105403    6.3961447   24.6633766 
Cd   16.7919011    9.7364396   27.0125606 
Cd   16.5669485    9.6595196   22.6137918 
Cd   13.1424457   11.6309817   28.3389025 
Cd   10.9280464   13.1418899   24.4706742 
Cd   14.8293538   13.3262577   24.8202462 
Cd   13.1173219   12.3577559   21.2035266 
Cd   15.2181281    8.5663793   31.1824946 
Se   15.6542157    7.2157413   22.1835171 
Se   14.7358476    9.5563816   28.7797740 
Se   15.6232404   10.8029532   24.8576407 
Se   11.4498985   11.2984129   26.3536034 
Se   12.9653349   14.1066642   23.2228967 
P    16.7332946   10.6186250   31.9907113 
P    17.2729084   14.4064707   24.4999400 
P     9.4439430   14.6793160   26.1229911 
H    17.5378935   10.6191315   33.1488979 
H    17.7093457   10.9039938   31.0108118 
H    16.1509170   11.8953056   32.1222486 
H    17.5737392   15.7766791   24.6468759 
H    17.9240580   14.1688778   23.2731720 
H    18.2375151   13.8699626   25.3766927 
H    10.0471081   15.3746423   27.1914408 
H     8.5708423   15.6926993   25.6753894 
H     8.5272219   13.8975122   26.8567897 
