93
Energy = -53289.97121212
I     7.0761989   10.6002877   27.8687690 
I     8.6712722   12.1893243   22.8726146 
I     8.3595311    7.9790253   20.5565446 
I     9.1567642    4.0908842   18.6558522 
I     9.0892261    4.0449672   30.8201382 
I     6.7698006    5.5841152   27.4052366 
Cd   13.1904076    7.3202719   28.2443031 
Cd   13.0674148    9.9500426   24.7979915 
Cd    9.4598739    9.4964115   27.0836080 
Cd    9.6484084    9.4567810   22.5525875 
Cd   13.1278229    7.5867935   21.4368036 
Cd    9.5126819    5.4273432   28.5132827 
Cd    9.4894535    2.9518101   24.5146530 
Cd    7.3568010    6.1547864   24.6990374 
Cd    9.1388100    5.1262206   21.1681835 
Cd   11.4402859    8.9103462   31.2227160 
Se   13.1697527    7.5244705   25.6132750 
Se   12.2409884    9.9731720   22.2400930 
Se   10.6350568    7.8609124   28.8381729 
Se    9.1456549    8.1190837   24.7737857 
Se   10.7790703    4.2835275   26.4257959 
Se    7.6410765    4.1325533   23.1179434 
Se   13.2699968    8.0778338   32.7479616 
P     8.8152455    8.6275411   31.8866372 
P     5.4142735    8.0242719   24.3904220 
P     8.9965263    1.0561377   26.3718672 
H     8.1020119    8.9764893   33.0577197 
H     7.9395650    9.1817491   30.9281852 
H     8.4199230    7.2750838   31.7945545 
H     4.0100933    7.8720621   24.4475785 
H     5.4795719    8.8720972   23.2650367 
H     5.5720803    8.9935087   25.4061507 
H     8.4087189    1.5285555   27.5633161 
H     8.3284122   -0.1862829   26.2780216 
H    10.2351118    0.6153562   26.8899773 
H    11.6504314    7.2154121   18.2410904 
P    12.7956649    7.8228129   18.7936294 
H    13.7762322    7.3292773   17.9101624 
H    12.6505336    9.1322372   18.2882061 
I    13.3024697    0.7121346   27.4785741 
I    11.3743675    1.4311346   22.9605125 
I    15.2326442    3.1095282   20.6390407 
I    18.2953531    5.8169307   18.6971679 
I    17.5724615    7.0098827   30.6539524 
I    18.2814868    3.3586755   27.5119220 
Cd   11.0750607    6.2874066   24.7209689 
Cd   13.3041163    3.4646150   27.1642001 
Cd   13.2913480    3.5491694   22.6439614 
Cd   16.5543218    5.5686075   28.3265296 
Cd   19.0260565    6.6871723   24.3900516 
Cd   17.3133440    3.3073098   24.7919813 
Cd   17.2580925    5.2075425   21.1323422 
Cd   14.3967731    4.7620783   33.3298111 
Se   11.6210225    5.5718651   22.2086684 
Se   14.1470050    5.0450023   29.0835518 
Se   14.7317713    3.8579621   24.8445563 
Se   17.2236127    7.1847710   26.2817495 
Se   18.8970037    4.4574049   23.0972263 
P    16.7513035    0.6704570   24.6665145 
P    20.9382657    7.1580213   26.2604402 
H    17.6130285   -0.4318385   24.8631416 
H    16.1104520    0.2264412   23.4917667 
H    15.7430315    0.3540333   25.6062918 
H    20.8673815    6.3467126   27.4110820 
H    22.3457663    7.2284011   26.1429466 
H    20.7065759    8.4131406   26.8643317 
I    18.9895108   11.1256879   27.7738785 
I    19.3994506    9.1318273   22.9452961 
I    16.1264996   11.6665153   20.6721920 
I    12.3175282   12.6312044   18.5699195 
I    11.4692565   11.8338025   30.6587684 
I    14.4240569   14.0215652   27.5111136 
Cd   15.2918837    6.4386356   24.6001932 
Cd   16.7271598    9.7138807   27.0361505 
Cd   16.5851564    9.6595921   22.6075543 
Cd   13.0629325   11.6013115   28.3386589 
Cd   11.1334299   12.7051748   24.1010340 
Cd   14.8062303   13.2900385   24.7424200 
Cd   13.2780171   12.2536237   21.0875719 
Cd   15.1974366    8.6051991   31.2175472 
Se   15.6589456    7.2417166   22.0930108 
Se   14.6839956    9.5665162   28.7425706 
Se   15.6037111   10.7777139   24.8121706 
Se   11.3420501   11.3324700   26.3078899 
Se   13.0219684   14.0783593   23.0361520 
P    16.7986842   10.7991445   31.7630726 
P    17.3758022   14.1378930   24.6377348 
H    17.6621396   10.9455376   32.8732831 
H    17.7281535   11.1041273   30.7432706 
H    16.1776519   12.0644254   31.8504974 
H    17.8815227   15.4478750   24.7970680 
H    18.1296634   13.7613044   23.5074016 
H    18.1302734   13.4826862   25.6358894 
