93
Energy = -53289.81783298
I     7.2038537   10.5445389   28.2054098 
I     8.6161882   12.1393840   23.0951271 
I     8.2208691    7.9661854   20.6956705 
I     9.0269889    3.9763822   18.8017722 
I    10.2641940    4.2969742   30.9433490 
I     6.8861024    5.5156189   27.6921607 
Cd   13.2302381    7.4942167   28.0115118 
Cd   13.0931414    9.9875371   24.7541403 
Cd    9.4690816    9.5766705   27.0404596 
Cd    9.6003867    9.4486946   22.5972482 
Cd   13.1403767    7.5777424   21.4224438 
Cd    9.6295978    5.5194368   28.3848071 
Cd    9.4077893    2.8546836   24.4919796 
Cd    7.3071063    6.1529779   24.8692132 
Cd    9.0167450    5.1337064   21.2253297 
Cd   11.3083248    9.0761385   31.1516524 
Se   13.1496612    7.5111604   25.4563834 
Se   12.1895292    9.9421983   22.2545089 
Se   10.7163640    7.9184272   28.8231262 
Se    9.1246565    8.0822125   24.8552647 
Se   10.7422979    4.2408409   26.3670408 
Se    7.5640074    4.1670216   23.2501026 
Se   13.1252510    7.7311720   32.4902812 
P     8.7998728    9.2154482   32.0422390 
P     5.1967118    7.8066546   24.6742376 
P     8.8737524    0.7141248   26.0213710 
H     8.3936473    9.9864482   33.1503065 
H     7.9435183    9.7273646   31.0410626 
H     8.1330316    8.0116140   32.3454958 
H     3.8462530    7.4344350   24.8391489 
H     5.0755376    8.5544820   23.4860278 
H     5.2610990    8.8623651   25.6066729 
H     7.9758165    0.7751650   27.1069084 
H     8.4595082   -0.5128552   25.4640985 
H    10.0345738    0.2875685   26.7017468 
H    11.9733627    7.3107134   18.0925974 
P    13.0496087    7.8982454   18.7853766 
H    14.1282018    7.4361829   18.0064408 
H    12.9489837    9.2314647   18.3316710 
I    13.1073562    0.6768107   27.8188817 
I    11.3786677    1.4177447   23.0017718 
I    15.2986698    3.0339070   20.7683840 
I    18.3801032    5.8127803   18.8611477 
I    17.4009461    6.7698822   30.9457625 
I    18.0483452    3.1946883   27.7181023 
Cd   11.0341757    6.2413928   24.6295801 
Cd   13.1703183    3.2730710   27.0233939 
Cd   13.2706316    3.5489990   22.6271017 
Cd   16.6924019    5.5830613   28.4362903 
Cd   19.0949769    6.6491652   24.5327833 
Cd   17.2747235    3.1972689   24.9046817 
Cd   17.3170145    5.1490261   21.2378769 
Cd   12.6813384    5.7193612   30.9397179 
Se   11.5967470    5.5538426   22.1496706 
Se   14.0956436    5.0979697   28.8542321 
Se   14.6973193    3.8097148   24.8895473 
Se   17.2128839    7.1591504   26.3797060 
Se   18.8727050    4.4086027   23.2841057 
P    16.8937112    0.5531563   24.6374238 
P    21.1746619    7.1442063   26.1809331 
H    17.8704689   -0.4436644   24.8410386 
H    16.3865600    0.1179330   23.3971365 
H    15.8803538    0.0638698   25.4871448 
H    21.4664627    6.2642351   27.2435013 
H    22.4895396    7.3706528   25.7236588 
H    20.9818010    8.3311325   26.9182835 
I    18.9792093   11.0177280   28.0624902 
I    19.3968967    9.1016282   23.1025042 
I    16.1129040   11.6061797   20.7225672 
I    12.2505569   12.3935598   18.5787665 
I    11.8286186   11.8621037   30.8487281 
I    14.5281843   14.0319395   27.4958161 
Cd   15.3443182    6.3760353   24.6377433 
Cd   16.8088931    9.7397086   27.0185304 
Cd   16.6099323    9.6045797   22.6280807 
Cd   13.1606407   11.6819799   28.3032234 
Cd   11.1305513   12.7263273   24.1196414 
Cd   14.8804093   13.2986012   24.6952038 
Cd   13.2594324   12.2261208   21.0740138 
Cd   15.2031252    8.6079275   31.1618256 
Se   15.6627420    7.1904936   22.1516251 
Se   14.7238107    9.5768084   28.7478306 
Se   15.6309289   10.7714672   24.8423453 
Se   11.4020270   11.3401537   26.3548281 
Se   13.0318200   14.0386888   23.0367510 
P    16.7067642   10.6526618   32.0077816 
P    17.3103048   14.4131531   24.4348033 
H    17.5199562   10.6094390   33.1588442 
H    17.6765126   10.9737783   31.0331665 
H    16.1247058   11.9230204   32.1922649 
H    17.5641323   15.7848269   24.6408568 
H    18.0080805   14.2369242   23.2236662 
H    18.2577568   13.8725261   25.3273564 
