93
Energy = -53289.91886269
I     7.1130536   10.6624888   28.0110590 
I     8.6505972   12.1702551   22.9772362 
I     8.2778022    7.9593448   20.6331163 
I     9.0656403    4.0027851   18.7776669 
I    10.0485345    4.3863062   31.0169922 
I     6.8969225    5.5083776   27.6224382 
Cd   13.1850273    7.4232121   28.1427055 
Cd   13.0732635    9.9748668   24.7771172 
Cd    9.4384266    9.6122961   27.0258980 
Cd    9.6155334    9.4497627   22.5705381 
Cd   13.1255718    7.5837211   21.4359217 
Cd    9.6530161    5.4977084   28.4905240 
Cd    9.4757719    2.9041301   24.5307114 
Cd    7.3509454    6.1437344   24.8504994 
Cd    9.0665695    5.1245672   21.2348800 
Cd   11.3883958    8.9543869   31.1336333 
Se   13.1700316    7.5279409   25.5443153 
Se   12.2074625    9.9604398   22.2487378 
Se   10.6517735    7.9672289   28.7702789 
Se    9.1324435    8.1113891   24.8191550 
Se   10.7854112    4.2666965   26.4135117 
Se    7.6067951    4.1473072   23.2386699 
Se   13.2056837    7.8047036   32.5428603 
P     8.8050727    8.9763558   31.9034410 
P     5.3158622    7.9077964   24.6425831 
P     9.0113535    0.8090788   26.1622855 
H     8.2308855    9.5357613   33.0661973 
H     7.9848225    9.5799530   30.9243918 
H     8.2002542    7.7042578   31.9551993 
H     3.9337399    7.6559372   24.7838182 
H     5.2687299    8.7003272   23.4777361 
H     5.4601080    8.9297084   25.6058942 
H     8.2157463    0.9598245   27.3168186 
H     8.5404082   -0.4529078   25.7414824 
H    10.2253467    0.4162415   26.7682926 
H    11.7670281    7.2772093   18.1852046 
P    12.8969384    7.8571504   18.7946630 
H    13.9100154    7.3577435   17.9528026 
H    12.7934005    9.1793899   18.3112059 
I    13.2865512    0.6910453   27.5711991 
I    11.3869050    1.4296164   22.9807380 
I    15.2542953    3.0832694   20.6899995 
I    18.3236597    5.8227890   18.7587579 
I    17.5181644    6.8720646   30.7766858 
I    18.2075529    3.2934732   27.5841203 
Cd   11.0623103    6.2771416   24.6956398 
Cd   13.2674429    3.3954065   27.0985804 
Cd   13.2855648    3.5599568   22.6403254 
Cd   16.6068651    5.5599977   28.3512853 
Cd   19.0588018    6.6664035   24.4401556 
Cd   17.3067076    3.2539777   24.8213602 
Cd   17.2816622    5.1832307   21.1673540 
Cd   13.0445160    5.1537323   31.6791718 
Se   11.6020996    5.5679741   22.1980295 
Se   14.1073661    5.1018564   28.9803522 
Se   14.7320541    3.8522767   24.8592041 
Se   17.2285603    7.1784570   26.3216678 
Se   18.8933587    4.4349071   23.1613444 
P    16.7956356    0.6185536   24.6767244 
P    21.0136279    7.1137331   26.2623297 
H    17.7012711   -0.4430770   24.8892416 
H    16.1983906    0.1584309   23.4859601 
H    15.7852503    0.2587247   25.5959208 
H    21.0227436    6.2745546   27.3952200 
H    22.4080269    7.1985278   26.0532443 
H    20.8106686    8.3515422   26.9087761 
I    18.9524118   11.1068580   27.9338285 
I    19.4011723    9.1180590   23.0140645 
I    16.1255935   11.6312531   20.6744145 
I    12.2761973   12.4577394   18.5532017 
I    11.7076992   11.8335417   30.7815016 
I    14.4790539   14.0373121   27.4840695 
Cd   15.3254770    6.4254506   24.6092531 
Cd   16.7632797    9.7308494   27.0100358 
Cd   16.5999424    9.6355366   22.6032210 
Cd   13.1198089   11.6539822   28.3121501 
Cd   11.1494103   12.7331836   24.0808161 
Cd   14.8551629   13.2999543   24.6972009 
Cd   13.2766436   12.2269042   21.0610953 
Cd   15.2223376    8.5690088   31.1494966 
Se   15.6581385    7.2219904   22.1092243 
Se   14.7071193    9.5788703   28.7313443 
Se   15.6146331   10.7766670   24.8096779 
Se   11.3791839   11.3774019   26.3171360 
Se   13.0499061   14.0643226   23.0022974 
P    16.7016651   10.7196907   31.8721934 
P    17.3766372   14.2565625   24.6051049 
H    17.5173317   10.8174950   33.0206048 
H    17.6580092   11.0457982   30.8853802 
H    16.0551612   11.9691586   31.9737981 
H    17.7630711   15.5922846   24.8472929 
H    18.1572035   14.0122084   23.4571172 
H    18.1812838   13.6115375   25.5681057 
