89
Energy = -52946.77612187
I     7.1888323   10.5195379   28.1801795 
I     8.6344429   12.1462537   23.1057008 
I     8.1393430    7.9600207   20.7363735 
I     8.8704712    3.8553757   18.8727641 
I    10.2785380    4.2913997   30.9363890 
I     6.8858428    5.5431113   27.7150240 
Cd   13.2294624    7.4932389   27.9164848 
Cd   13.0377067   10.0306751   24.7118003 
Cd    9.4574551    9.5614164   27.0191799 
Cd    9.5924362    9.4505331   22.5799338 
Cd   13.1321539    7.5684226   21.9406762 
Cd    9.6298642    5.5095281   28.3839879 
Cd    9.3955315    2.8225936   24.4937198 
Cd    7.2930855    6.1620184   24.8890220 
Cd    8.9038183    5.1383082   21.2192901 
Cd   11.3067703    9.0548095   31.1215766 
Se   13.1426425    7.5126339   25.3429299 
Se   12.1695850    9.9916509   22.1725924 
Se   10.7341883    7.9052250   28.7820009 
Se    9.1474881    8.0586567   24.8381372 
Se   10.7382791    4.1912587   26.3852700 
Se    7.5387644    4.1528199   23.2970428 
Se   13.1287751    7.7213801   32.4617611 
P     8.7983375    9.1979748   32.0088556 
P     5.1912781    7.8107771   24.6401732 
P     8.8750617    0.6749331   26.0262219 
H     8.4054143    9.9961554   33.1021317 
H     7.9378941    9.6936006   31.0029580 
H     8.1276206    8.0048683   32.3439682 
H     3.8421808    7.4344049   24.8049492 
H     5.0792898    8.5168500   23.4261209 
H     5.2419166    8.8954271   25.5392236 
H     7.9893101    0.7339928   27.1218700 
H     8.4549902   -0.5515752   25.4723658 
H    10.0409737    0.2442224   26.6941953 
I    13.2363402    0.6568271   27.7812769 
I    11.3818094    1.3959221   23.0190547 
I    15.2929953    2.9807576   20.7629032 
I    18.5245631    5.7285079   18.9197884 
I    17.4014040    6.7806857   30.9332662 
I    18.0455842    3.1928133   27.7402181 
Cd   11.0060934    6.1609610   24.6308192 
Cd   13.1923394    3.2565992   27.0005554 
Cd   13.2682156    3.5253679   22.6127094 
Cd   16.7020761    5.5894856   28.4290244 
Cd   19.0999454    6.6414281   24.4977866 
Cd   17.2608593    3.1649071   24.9294401 
Cd   17.3343553    5.0418306   21.2157063 
Cd   12.6929021    5.7214939   30.8965428 
Se   11.5572655    5.5048078   22.1208974 
Se   14.0963387    5.1170317   28.7997353 
Se   14.6980181    3.8403208   24.8679696 
Se   17.2452057    7.1678105   26.3757150 
Se   18.8583137    4.3721738   23.3075120 
P    16.8601683    0.5247470   24.7421925 
P    21.2165933    7.1551988   26.0928763 
H    17.8356931   -0.4602937   24.9994286 
H    16.3641446    0.0366296   23.5173025 
H    15.8377793    0.0801628   25.6065854 
H    21.5453890    6.2878682   27.1551196 
H    22.5149442    7.3804962   25.5905703 
H    21.0449519    8.3492816   26.8232173 
I    18.9537829   11.0794779   27.9992914 
I    19.3823987    9.0982508   23.0692494 
I    16.1030090   11.6599526   20.7136173 
I    12.1129058   13.0097008   18.7857040 
I    11.8241197   11.8425475   30.8433842 
I    14.5693592   14.0071488   27.5846712 
Cd   15.4087647    6.3919983   24.6205870 
Cd   16.8055253    9.7522400   26.9759147 
Cd   16.6018993    9.6326923   22.5857588 
Cd   13.1511815   11.6638586   28.2985733 
Cd   11.1252791   12.7904749   24.1452817 
Cd   14.9180595   13.3116835   24.7819961 
Cd   13.3069382   12.3870803   21.0934806 
Cd   15.1941363    8.6076368   31.1221934 
Se   15.7040928    7.1911802   22.1056499 
Se   14.7177652    9.5548906   28.6979293 
Se   15.5952771   10.7572487   24.8136530 
Se   11.3831154   11.3456274   26.3553775 
Se   13.0706256   14.0984209   23.1559927 
P    16.6505044   10.7002129   31.9312393 
P    17.3674915   14.3702437   24.5213746 
H    17.4464953   10.7160902   33.0949852 
H    17.6250390   11.0209021   30.9612507 
H    16.0284760   11.9575331   32.0671744 
H    17.6547486   15.7291146   24.7635601 
H    18.0417395   14.2133089   23.2944574 
H    18.3126823   13.7795524   25.3844976 
