89
Energy = -52946.93367030
I     7.0690932   10.6101838   27.8642778 
I     8.6509144   12.1841056   22.8947964 
I     8.2082752    7.9419588   20.6307375 
I     8.9042947    3.8773781   18.7820252 
I     9.1277160    4.0514284   30.8443289 
I     6.7654470    5.6417990   27.4803025 
Cd   13.1876506    7.3253921   28.1134037 
Cd   13.0086433   10.0001259   24.7607974 
Cd    9.4429794    9.4971699   27.0721430 
Cd    9.5992988    9.4454228   22.5378235 
Cd   13.1135341    7.5738303   21.9636739 
Cd    9.5167874    5.4335918   28.5336630 
Cd    9.4638688    2.9187108   24.5494735 
Cd    7.3237925    6.1674181   24.7595731 
Cd    8.9896157    5.1126546   21.1849568 
Cd   11.4497820    8.8831567   31.1918945 
Se   13.1514656    7.5231796   25.4606418 
Se   12.1829390   10.0063296   22.1720790 
Se   10.6574098    7.8617060   28.7968816 
Se    9.1476573    8.1048235   24.7750554 
Se   10.7665429    4.2577559   26.4494448 
Se    7.5916978    4.1195555   23.2127543 
Se   13.2801727    8.0780790   32.7276073 
P     8.8204646    8.6339785   31.8564339 
P     5.3815550    8.0231655   24.4240580 
P     8.9927418    1.0121996   26.3996785 
H     8.1245059    9.0049302   33.0306333 
H     7.9473726    9.1984693   30.9013626 
H     8.3975913    7.2890278   31.7775984 
H     3.9809673    7.8543387   24.5066155 
H     5.4226259    8.8339978   23.2710572 
H     5.5422094    9.0236987   25.4082589 
H     8.4040981    1.4703294   27.5962918 
H     8.3306950   -0.2322864   26.2943646 
H    10.2340870    0.5730704   26.9119890 
I    13.3148863    0.7037142   27.4705621 
I    11.3566989    1.4125604   22.9935497 
I    15.2264273    3.0536629   20.6562279 
I    18.4462915    5.7209906   18.7626920 
I    17.5752644    7.0070271   30.6417539 
I    18.2643303    3.3391370   27.5276261 
Cd   11.0183278    6.2146447   24.7078080 
Cd   13.3092793    3.4512741   27.1432996 
Cd   13.2670920    3.5277496   22.6367330 
Cd   16.5649575    5.5689312   28.3212157 
Cd   19.0278034    6.6857857   24.3619073 
Cd   17.2964477    3.2756458   24.8112782 
Cd   17.2642344    5.1156678   21.1204747 
Cd   14.3119777    4.6989834   33.2373630 
Se   11.5554497    5.5166897   22.1679902 
Se   14.1369301    5.0766804   29.0258755 
Se   14.7223700    3.8741037   24.8267241 
Se   17.2536458    7.1945783   26.2845257 
Se   18.8831551    4.4280968   23.1242018 
P    16.7364280    0.6451108   24.6692657 
P    20.9640546    7.1605565   26.2094659 
H    17.6064838   -0.4476273   24.8790381 
H    16.1204495    0.1991307   23.4822351 
H    15.7159945    0.3198393   25.5928806 
H    20.9063933    6.3509297   27.3620709 
H    22.3699492    7.2270335   26.0734917 
H    20.7437901    8.4165287   26.8152433 
I    18.9799758   11.1493578   27.7206080 
I    19.3795437    9.1349553   22.9198717 
I    16.0834150   11.6947994   20.6524279 
I    12.1468569   13.0575117   18.7373201 
I    11.4766443   11.8203084   30.6581626 
I    14.4527001   14.0048691   27.5594615 
Cd   15.3625385    6.4367782   24.5952928 
Cd   16.7212213    9.7328306   26.9908383 
Cd   16.5699089    9.6780327   22.5695359 
Cd   13.0566542   11.5931661   28.3353876 
Cd   11.1015860   12.7465507   24.1153570 
Cd   14.8115675   13.3026415   24.7862380 
Cd   13.2756116   12.3585020   21.0886443 
Cd   15.1846474    8.5914738   31.1658521 
Se   15.6897298    7.2363047   22.0584045 
Se   14.6733207    9.5445408   28.6845841 
Se   15.5642956   10.7719844   24.7788686 
Se   11.3200839   11.3482676   26.3123717 
Se   13.0188411   14.1130173   23.1075911 
P    16.7621022   10.8103011   31.7058596 
P    17.3792489   14.1364970   24.6368892 
H    17.6108906   10.9688793   32.8255305 
H    17.6995520   11.1281784   30.6973171 
H    16.1238884   12.0675257   31.7852492 
H    17.8854412   15.4453419   24.8009587 
H    18.1030369   13.7764155   23.4818428 
H    18.1585373   13.4682586   25.6072869 
