89
Energy = -52946.87947753
I     7.0933797   10.6566855   27.9902793 
I     8.6535944   12.1744328   22.9841958 
I     8.1710151    7.9366423   20.6812273 
I     8.8394078    3.8251661   18.8852435 
I    10.0419782    4.4247955   31.0364250 
I     6.8814723    5.5631577   27.6702423 
Cd   13.1790650    7.4288641   28.0248203 
Cd   13.0140228   10.0248476   24.7348866 
Cd    9.4153883    9.6109957   27.0009461 
Cd    9.5877656    9.4468337   22.5482442 
Cd   13.1154147    7.5706168   21.9643585 
Cd    9.6421751    5.5093841   28.5011507 
Cd    9.4437304    2.8723169   24.5593488 
Cd    7.3210045    6.1575401   24.8888106 
Cd    8.9335252    5.1170601   21.2423060 
Cd   11.3854893    8.9317841   31.0973863 
Se   13.1503560    7.5305670   25.4055499 
Se   12.1705958   10.0002886   22.1697419 
Se   10.6672071    7.9705780   28.7201601 
Se    9.1375986    8.0962549   24.8046782 
Se   10.7637787    4.2377011   26.4392834 
Se    7.5635182    4.1347862   23.3103009 
Se   13.2066056    7.8054516   32.5180654 
P     8.8030662    8.9451927   31.8691850 
P     5.2884707    7.9094769   24.6392347 
P     9.0042300    0.7667785   26.1854011 
H     8.2409343    9.5021845   33.0386133 
H     7.9754863    9.5539326   30.8995955 
H     8.1969832    7.6737302   31.9220478 
H     3.9104902    7.6433595   24.7911559 
H     5.2314638    8.6640900   23.4501843 
H     5.4225884    8.9599804   25.5724353 
H     8.2119570    0.8984575   27.3445441 
H     8.5441563   -0.4953748   25.7537421 
H    10.2242465    0.3797774   26.7828350 
I    13.2947655    0.6844088   27.5738908 
I    11.3681639    1.4083444   23.0167890 
I    15.2515140    3.0136824   20.7211768 
I    18.4723769    5.7175822   18.8361781 
I    17.5120959    6.8764247   30.7689163 
I    18.1701033    3.2638969   27.6220279 
Cd   11.0108071    6.2026566   24.6897288 
Cd   13.2647099    3.3841115   27.0902592 
Cd   13.2646475    3.5327089   22.6417511 
Cd   16.6078604    5.5594990   28.3533140 
Cd   19.0621682    6.6616460   24.4236665 
Cd   17.2801242    3.2204949   24.8594552 
Cd   17.2924226    5.0762342   21.1673561 
Cd   13.0583940    5.1624484   31.6454253 
Se   11.5463997    5.5122532   22.1648066 
Se   14.0920384    5.1324835   28.9315639 
Se   14.7163253    3.8715804   24.8543367 
Se   17.2547528    7.1819991   26.3295222 
Se   18.8754632    4.3983887   23.2078007 
P    16.7831905    0.5879680   24.7082080 
P    21.0712605    7.1531853   26.1784482 
H    17.7041745   -0.4545735   24.9450645 
H    16.2173486    0.1116549   23.5086844 
H    15.7626115    0.2179547   25.6118943 
H    21.1915575    6.3008996   27.2954527 
H    22.4440267    7.3100731   25.8868878 
H    20.8485200    8.3709843   26.8554756 
I    18.9405186   11.1321903   27.8813559 
I    19.3810410    9.1147317   22.9911438 
I    16.0973350   11.6586982   20.6570717 
I    12.1287385   13.0191834   18.7479631 
I    11.7033414   11.8170577   30.7789510 
I    14.5105546   14.0186766   27.5548362 
Cd   15.3879399    6.4270891   24.6073666 
Cd   16.7566082    9.7430983   26.9680199 
Cd   16.5847570    9.6516207   22.5669024 
Cd   13.1038121   11.6442837   28.3078088 
Cd   11.1307257   12.7920861   24.0983212 
Cd   14.8765435   13.3123651   24.7666937 
Cd   13.3009751   12.3599108   21.0728964 
Cd   15.2058934    8.5698528   31.1013826 
Se   15.6909952    7.2115150   22.0774437 
Se   14.6930842    9.5609789   28.6747884 
Se   15.5765742   10.7655396   24.7811339 
Se   11.3546886   11.3918016   26.3158747 
Se   13.0718471   14.1138261   23.0994146 
P    16.6683725   10.7393658   31.8081836 
P    17.4064921   14.2256969   24.6383241 
H    17.4758402   10.8507519   32.9609919 
H    17.6287971   11.0667548   30.8257536 
H    16.0119019   11.9845798   31.8969679 
H    17.8143845   15.5540865   24.8842313 
H    18.1523345   13.9837855   23.4671015 
H    18.2253645   13.5585372   25.5742997 
